trial_index,pair,sublattice,element,Z,frac_on_site,stoich_count,zt,formula
0,83 × 52,A,Bi,83,1.0,2.0,0.193306631144729,(Bi1.00)2(Te1.00)3
0,83 × 52,X,Te,52,1.0,3.0,0.193306631144729,(Bi1.00)2(Te1.00)3
1,83 × 52,A,Bi,83,1.0,2.0,0.193306631144729,(Bi1.00)2(Te1.00)3
1,83 × 52,X,Te,52,1.0,3.0,0.193306631144729,(Bi1.00)2(Te1.00)3
2,83 × 52,A,Bi,83,1.0,2.0,0.193306631144729,(Bi1.00)2(Te1.00)3
2,83 × 52,X,Te,52,1.0,3.0,0.193306631144729,(Bi1.00)2(Te1.00)3
3,83 × 34,A,Bi,83,1.0,2.0,0.08418504250529618,(Bi1.00)2(Se1.00)3
3,83 × 34,X,Se,34,1.0,3.0,0.08418504250529618,(Bi1.00)2(Se1.00)3
4,83 × 34,A,Bi,83,1.0,2.0,0.08418504250529618,(Bi1.00)2(Se1.00)3
4,83 × 34,X,Se,34,1.0,3.0,0.08418504250529618,(Bi1.00)2(Se1.00)3
5,83 × 34,A,Bi,83,1.0,2.0,0.08418504250529618,(Bi1.00)2(Se1.00)3
5,83 × 34,X,Se,34,1.0,3.0,0.08418504250529618,(Bi1.00)2(Se1.00)3
6,51 × 52,A,Sb,51,1.0,2.0,0.5404170989182809,(Sb1.00)2(Te1.00)3
6,51 × 52,X,Te,52,1.0,3.0,0.5404170989182809,(Sb1.00)2(Te1.00)3
7,51 × 52,A,Sb,51,1.0,2.0,0.5404170989182809,(Sb1.00)2(Te1.00)3
7,51 × 52,X,Te,52,1.0,3.0,0.5404170989182809,(Sb1.00)2(Te1.00)3
8,51 × 52,A,Sb,51,1.0,2.0,0.5404170989182809,(Sb1.00)2(Te1.00)3
8,51 × 52,X,Te,52,1.0,3.0,0.5404170989182809,(Sb1.00)2(Te1.00)3
9,51 × 34,A,Sb,51,1.0,2.0,0.07996757135564514,(Sb1.00)2(Se1.00)3
9,51 × 34,X,Se,34,1.0,3.0,0.07996757135564514,(Sb1.00)2(Se1.00)3
10,51 × 34,A,Sb,51,1.0,2.0,0.07996757135564514,(Sb1.00)2(Se1.00)3
10,51 × 34,X,Se,34,1.0,3.0,0.07996757135564514,(Sb1.00)2(Se1.00)3
11,51 × 34,A,Sb,51,1.0,2.0,0.07996757135564514,(Sb1.00)2(Se1.00)3
11,51 × 34,X,Se,34,1.0,3.0,0.07996757135564514,(Sb1.00)2(Se1.00)3
12,83-50 × 52-34,A,Bi,83,1.0,2.0,0.4341936562859043,(Bi1.00Sn0.00)2(Te0.88Se0.12)3
12,83-50 × 52-34,A,Sn,50,0.0,0.0,0.4341936562859043,(Bi1.00Sn0.00)2(Te0.88Se0.12)3
12,83-50 × 52-34,X,Te,52,0.88,2.64,0.4341936562859043,(Bi1.00Sn0.00)2(Te0.88Se0.12)3
12,83-50 × 52-34,X,Se,34,0.12,0.36,0.4341936562859043,(Bi1.00Sn0.00)2(Te0.88Se0.12)3
13,83-50-82 × 52-34,A,Bi,83,0.58,1.16,0.08217407121511666,(Bi0.58Sn0.12Pb0.30)2(Te0.38Se0.62)3
13,83-50-82 × 52-34,A,Sn,50,0.12,0.24,0.08217407121511666,(Bi0.58Sn0.12Pb0.30)2(Te0.38Se0.62)3
13,83-50-82 × 52-34,A,Pb,82,0.3,0.6,0.08217407121511666,(Bi0.58Sn0.12Pb0.30)2(Te0.38Se0.62)3
13,83-50-82 × 52-34,X,Te,52,0.37999999999999995,1.14,0.08217407121511666,(Bi0.58Sn0.12Pb0.30)2(Te0.38Se0.62)3
13,83-50-82 × 52-34,X,Se,34,0.62,1.86,0.08217407121511666,(Bi0.58Sn0.12Pb0.30)2(Te0.38Se0.62)3
14,51 × 52-34,A,Sb,51,1.0,2.0,0.31025331988132593,(Sb1.00)2(Te0.52Se0.48)3
14,51 × 52-34,X,Te,52,0.52,1.56,0.31025331988132593,(Sb1.00)2(Te0.52Se0.48)3
14,51 × 52-34,X,Se,34,0.48,1.44,0.31025331988132593,(Sb1.00)2(Te0.52Se0.48)3
15,51-50 × 52,A,Sb,51,0.7,1.4,0.34625455645103825,(Sb0.70Sn0.30)2(Te1.00)3
15,51-50 × 52,A,Sn,50,0.3,0.6,0.34625455645103825,(Sb0.70Sn0.30)2(Te1.00)3
15,51-50 × 52,X,Te,52,1.0,3.0,0.34625455645103825,(Sb0.70Sn0.30)2(Te1.00)3
16,82 × 16,A,Pb,82,1.0,2.0,0.05615635964928556,(Pb1.00)2(S1.00)3
16,82 × 16,X,S,16,1.0,3.0,0.05615635964928556,(Pb1.00)2(S1.00)3
17,83-50 × 16,A,Bi,83,0.7,1.4,0.10854962983441938,(Bi0.70Sn0.30)2(S1.00)3
17,83-50 × 16,A,Sn,50,0.3,0.6,0.10854962983441938,(Bi0.70Sn0.30)2(S1.00)3
17,83-50 × 16,X,S,16,1.0,3.0,0.10854962983441938,(Bi0.70Sn0.30)2(S1.00)3
18,83-51 × 16,A,Bi,83,1.0,2.0,0.03689870347663787,(Bi1.00Sb0.00)2(S1.00)3
18,83-51 × 16,A,Sb,51,0.0,0.0,0.03689870347663787,(Bi1.00Sb0.00)2(S1.00)3
18,83-51 × 16,X,S,16,1.0,3.0,0.03689870347663787,(Bi1.00Sb0.00)2(S1.00)3
19,83-50 × 34-16,A,Bi,83,0.7,1.4,0.12719864410630066,(Bi0.70Sn0.30)2(Se0.50S0.50)3
19,83-50 × 34-16,A,Sn,50,0.3,0.6,0.12719864410630066,(Bi0.70Sn0.30)2(Se0.50S0.50)3
19,83-50 × 34-16,X,Se,34,0.5,1.5,0.12719864410630066,(Bi0.70Sn0.30)2(Se0.50S0.50)3
19,83-50 × 34-16,X,S,16,0.5,1.5,0.12719864410630066,(Bi0.70Sn0.30)2(Se0.50S0.50)3
20,51 × 52,A,Sb,51,1.0,2.0,0.5404170989182809,(Sb1.00)2(Te1.00)3
20,51 × 52,X,Te,52,1.0,3.0,0.5404170989182809,(Sb1.00)2(Te1.00)3
21,51 × 52,A,Sb,51,1.0,2.0,0.5404170989182809,(Sb1.00)2(Te1.00)3
21,51 × 52,X,Te,52,1.0,3.0,0.5404170989182809,(Sb1.00)2(Te1.00)3
22,51 × 52,A,Sb,51,1.0,2.0,0.5404170989182809,(Sb1.00)2(Te1.00)3
22,51 × 52,X,Te,52,1.0,3.0,0.5404170989182809,(Sb1.00)2(Te1.00)3
23,51 × 52,A,Sb,51,1.0,2.0,0.5404170989182809,(Sb1.00)2(Te1.00)3
23,51 × 52,X,Te,52,1.0,3.0,0.5404170989182809,(Sb1.00)2(Te1.00)3
24,51 × 52,A,Sb,51,1.0,2.0,0.5404170989182809,(Sb1.00)2(Te1.00)3
24,51 × 52,X,Te,52,1.0,3.0,0.5404170989182809,(Sb1.00)2(Te1.00)3
25,50-82-49 × 52,A,Sn,50,0.4,0.8,0.06872608334086278,(Sn0.40Pb0.40In0.20)2(Te1.00)3
25,50-82-49 × 52,A,Pb,82,0.4,0.8,0.06872608334086278,(Sn0.40Pb0.40In0.20)2(Te1.00)3
25,50-82-49 × 52,A,In,49,0.2,0.4,0.06872608334086278,(Sn0.40Pb0.40In0.20)2(Te1.00)3
25,50-82-49 × 52,X,Te,52,1.0,3.0,0.06872608334086278,(Sn0.40Pb0.40In0.20)2(Te1.00)3
26,51 × 52,A,Sb,51,1.0,2.0,0.5404170989182809,(Sb1.00)2(Te1.00)3
26,51 × 52,X,Te,52,1.0,3.0,0.5404170989182809,(Sb1.00)2(Te1.00)3
27,83-50 × 52-34,A,Bi,83,0.98,1.96,0.13229932740585476,(Bi0.98Sn0.02)2(Te0.00Se1.00)3
27,83-50 × 52-34,A,Sn,50,0.02,0.04,0.13229932740585476,(Bi0.98Sn0.02)2(Te0.00Se1.00)3
27,83-50 × 52-34,X,Te,52,0.0,0.0,0.13229932740585476,(Bi0.98Sn0.02)2(Te0.00Se1.00)3
27,83-50 × 52-34,X,Se,34,1.0,3.0,0.13229932740585476,(Bi0.98Sn0.02)2(Te0.00Se1.00)3
28,51 × 52,A,Sb,51,1.0,2.0,0.5404170989182809,(Sb1.00)2(Te1.00)3
28,51 × 52,X,Te,52,1.0,3.0,0.5404170989182809,(Sb1.00)2(Te1.00)3
29,51 × 52,A,Sb,51,1.0,2.0,0.5404170989182809,(Sb1.00)2(Te1.00)3
29,51 × 52,X,Te,52,1.0,3.0,0.5404170989182809,(Sb1.00)2(Te1.00)3
30,51 × 52,A,Sb,51,1.0,2.0,0.5404170989182809,(Sb1.00)2(Te1.00)3
30,51 × 52,X,Te,52,1.0,3.0,0.5404170989182809,(Sb1.00)2(Te1.00)3
31,51 × 52,A,Sb,51,1.0,2.0,0.5404170989182809,(Sb1.00)2(Te1.00)3
31,51 × 52,X,Te,52,1.0,3.0,0.5404170989182809,(Sb1.00)2(Te1.00)3
32,51 × 52,A,Sb,51,1.0,2.0,0.5404170989182809,(Sb1.00)2(Te1.00)3
32,51 × 52,X,Te,52,1.0,3.0,0.5404170989182809,(Sb1.00)2(Te1.00)3
33,51 × 52,A,Sb,51,1.0,2.0,0.5404170989182809,(Sb1.00)2(Te1.00)3
33,51 × 52,X,Te,52,1.0,3.0,0.5404170989182809,(Sb1.00)2(Te1.00)3
34,51 × 52,A,Sb,51,1.0,2.0,0.5404170989182809,(Sb1.00)2(Te1.00)3
34,51 × 52,X,Te,52,1.0,3.0,0.5404170989182809,(Sb1.00)2(Te1.00)3
35,51 × 52,A,Sb,51,1.0,2.0,0.5404170989182809,(Sb1.00)2(Te1.00)3
35,51 × 52,X,Te,52,1.0,3.0,0.5404170989182809,(Sb1.00)2(Te1.00)3
36,51 × 52,A,Sb,51,1.0,2.0,0.5404170989182809,(Sb1.00)2(Te1.00)3
36,51 × 52,X,Te,52,1.0,3.0,0.5404170989182809,(Sb1.00)2(Te1.00)3
37,83-50 × 52,A,Bi,83,1.0,2.0,0.193306631144729,(Bi1.00Sn0.00)2(Te1.00)3
37,83-50 × 52,A,Sn,50,0.0,0.0,0.193306631144729,(Bi1.00Sn0.00)2(Te1.00)3
37,83-50 × 52,X,Te,52,1.0,3.0,0.193306631144729,(Bi1.00Sn0.00)2(Te1.00)3
38,83-51-82 × 52,A,Bi,83,0.36,0.72,0.13184834954552113,(Bi0.36Sb0.34Pb0.30)2(Te1.00)3
38,83-51-82 × 52,A,Sb,51,0.34,0.68,0.13184834954552113,(Bi0.36Sb0.34Pb0.30)2(Te1.00)3
38,83-51-82 × 52,A,Pb,82,0.3,0.6,0.13184834954552113,(Bi0.36Sb0.34Pb0.30)2(Te1.00)3
38,83-51-82 × 52,X,Te,52,1.0,3.0,0.13184834954552113,(Bi0.36Sb0.34Pb0.30)2(Te1.00)3
39,51-50 × 52,A,Sb,51,1.0,2.0,0.5404170989182809,(Sb1.00Sn0.00)2(Te1.00)3
39,51-50 × 52,A,Sn,50,0.0,0.0,0.5404170989182809,(Sb1.00Sn0.00)2(Te1.00)3
39,51-50 × 52,X,Te,52,1.0,3.0,0.5404170989182809,(Sb1.00Sn0.00)2(Te1.00)3
40,51-50 × 52,A,Sb,51,1.0,2.0,0.5404170989182809,(Sb1.00Sn0.00)2(Te1.00)3
40,51-50 × 52,A,Sn,50,0.0,0.0,0.5404170989182809,(Sb1.00Sn0.00)2(Te1.00)3
40,51-50 × 52,X,Te,52,1.0,3.0,0.5404170989182809,(Sb1.00Sn0.00)2(Te1.00)3
41,51 × 52,A,Sb,51,1.0,2.0,0.5404170989182809,(Sb1.00)2(Te1.00)3
41,51 × 52,X,Te,52,1.0,3.0,0.5404170989182809,(Sb1.00)2(Te1.00)3
42,51 × 52,A,Sb,51,1.0,2.0,0.5404170989182809,(Sb1.00)2(Te1.00)3
42,51 × 52,X,Te,52,1.0,3.0,0.5404170989182809,(Sb1.00)2(Te1.00)3
43,51 × 52,A,Sb,51,1.0,2.0,0.5404170989182809,(Sb1.00)2(Te1.00)3
43,51 × 52,X,Te,52,1.0,3.0,0.5404170989182809,(Sb1.00)2(Te1.00)3
44,51 × 52,A,Sb,51,1.0,2.0,0.5404170989182809,(Sb1.00)2(Te1.00)3
44,51 × 52,X,Te,52,1.0,3.0,0.5404170989182809,(Sb1.00)2(Te1.00)3
45,51-50 × 52,A,Sb,51,1.0,2.0,0.5404170989182809,(Sb1.00Sn0.00)2(Te1.00)3
45,51-50 × 52,A,Sn,50,0.0,0.0,0.5404170989182809,(Sb1.00Sn0.00)2(Te1.00)3
45,51-50 × 52,X,Te,52,1.0,3.0,0.5404170989182809,(Sb1.00Sn0.00)2(Te1.00)3
46,51 × 52,A,Sb,51,1.0,2.0,0.5404170989182809,(Sb1.00)2(Te1.00)3
46,51 × 52,X,Te,52,1.0,3.0,0.5404170989182809,(Sb1.00)2(Te1.00)3
47,51 × 52,A,Sb,51,1.0,2.0,0.5404170989182809,(Sb1.00)2(Te1.00)3
47,51 × 52,X,Te,52,1.0,3.0,0.5404170989182809,(Sb1.00)2(Te1.00)3
48,51 × 52,A,Sb,51,1.0,2.0,0.5404170989182809,(Sb1.00)2(Te1.00)3
48,51 × 52,X,Te,52,1.0,3.0,0.5404170989182809,(Sb1.00)2(Te1.00)3
49,51-50 × 52,A,Sb,51,1.0,2.0,0.5404170989182809,(Sb1.00Sn0.00)2(Te1.00)3
49,51-50 × 52,A,Sn,50,0.0,0.0,0.5404170989182809,(Sb1.00Sn0.00)2(Te1.00)3
49,51-50 × 52,X,Te,52,1.0,3.0,0.5404170989182809,(Sb1.00Sn0.00)2(Te1.00)3
50,51-50 × 52,A,Sb,51,1.0,2.0,0.5404170989182809,(Sb1.00Sn0.00)2(Te1.00)3
50,51-50 × 52,A,Sn,50,0.0,0.0,0.5404170989182809,(Sb1.00Sn0.00)2(Te1.00)3
50,51-50 × 52,X,Te,52,1.0,3.0,0.5404170989182809,(Sb1.00Sn0.00)2(Te1.00)3
51,51 × 52,A,Sb,51,1.0,2.0,0.5404170989182809,(Sb1.00)2(Te1.00)3
51,51 × 52,X,Te,52,1.0,3.0,0.5404170989182809,(Sb1.00)2(Te1.00)3
52,51-50 × 52,A,Sb,51,1.0,2.0,0.5404170989182809,(Sb1.00Sn0.00)2(Te1.00)3
52,51-50 × 52,A,Sn,50,0.0,0.0,0.5404170989182809,(Sb1.00Sn0.00)2(Te1.00)3
52,51-50 × 52,X,Te,52,1.0,3.0,0.5404170989182809,(Sb1.00Sn0.00)2(Te1.00)3
53,51 × 52,A,Sb,51,1.0,2.0,0.5404170989182809,(Sb1.00)2(Te1.00)3
53,51 × 52,X,Te,52,1.0,3.0,0.5404170989182809,(Sb1.00)2(Te1.00)3
54,51-50-49 × 52,A,Sb,51,0.6000000000000001,1.2,0.3432604911640645,(Sb0.60Sn0.30In0.10)2(Te1.00)3
54,51-50-49 × 52,A,Sn,50,0.30000000000000004,0.6,0.3432604911640645,(Sb0.60Sn0.30In0.10)2(Te1.00)3
54,51-50-49 × 52,A,In,49,0.10000000000000002,0.2,0.3432604911640645,(Sb0.60Sn0.30In0.10)2(Te1.00)3
54,51-50-49 × 52,X,Te,52,1.0,3.0,0.3432604911640645,(Sb0.60Sn0.30In0.10)2(Te1.00)3
55,51-50 × 52,A,Sb,51,0.92,1.84,0.40691004085075266,(Sb0.92Sn0.08)2(Te1.00)3
55,51-50 × 52,A,Sn,50,0.08,0.16,0.40691004085075266,(Sb0.92Sn0.08)2(Te1.00)3
55,51-50 × 52,X,Te,52,1.0,3.0,0.40691004085075266,(Sb0.92Sn0.08)2(Te1.00)3
56,51-50 × 52,A,Sb,51,1.0,2.0,0.5404170989182809,(Sb1.00Sn0.00)2(Te1.00)3
56,51-50 × 52,A,Sn,50,0.0,0.0,0.5404170989182809,(Sb1.00Sn0.00)2(Te1.00)3
56,51-50 × 52,X,Te,52,1.0,3.0,0.5404170989182809,(Sb1.00Sn0.00)2(Te1.00)3
57,83-51 × 52,A,Bi,83,0.6,1.2,0.531966222487233,(Bi0.60Sb0.40)2(Te1.00)3
57,83-51 × 52,A,Sb,51,0.4,0.8,0.531966222487233,(Bi0.60Sb0.40)2(Te1.00)3
57,83-51 × 52,X,Te,52,1.0,3.0,0.531966222487233,(Bi0.60Sb0.40)2(Te1.00)3
58,51-50 × 52,A,Sb,51,0.7,1.4,0.34625455645103825,(Sb0.70Sn0.30)2(Te1.00)3
58,51-50 × 52,A,Sn,50,0.3,0.6,0.34625455645103825,(Sb0.70Sn0.30)2(Te1.00)3
58,51-50 × 52,X,Te,52,1.0,3.0,0.34625455645103825,(Sb0.70Sn0.30)2(Te1.00)3
59,83-51 × 52,A,Bi,83,0.02,0.04,0.7506979486318122,(Bi0.02Sb0.98)2(Te1.00)3
59,83-51 × 52,A,Sb,51,0.98,1.96,0.7506979486318122,(Bi0.02Sb0.98)2(Te1.00)3
59,83-51 × 52,X,Te,52,1.0,3.0,0.7506979486318122,(Bi0.02Sb0.98)2(Te1.00)3
60,83-51 × 52,A,Bi,83,0.0,0.0,0.5404170989182809,(Bi0.00Sb1.00)2(Te1.00)3
60,83-51 × 52,A,Sb,51,1.0,2.0,0.5404170989182809,(Bi0.00Sb1.00)2(Te1.00)3
60,83-51 × 52,X,Te,52,1.0,3.0,0.5404170989182809,(Bi0.00Sb1.00)2(Te1.00)3
61,83-51 × 52,A,Bi,83,0.02,0.04,0.7506979486318122,(Bi0.02Sb0.98)2(Te1.00)3
61,83-51 × 52,A,Sb,51,0.98,1.96,0.7506979486318122,(Bi0.02Sb0.98)2(Te1.00)3
61,83-51 × 52,X,Te,52,1.0,3.0,0.7506979486318122,(Bi0.02Sb0.98)2(Te1.00)3
62,83-51 × 52,A,Bi,83,0.04,0.08,0.884716576192234,(Bi0.04Sb0.96)2(Te1.00)3
62,83-51 × 52,A,Sb,51,0.96,1.92,0.884716576192234,(Bi0.04Sb0.96)2(Te1.00)3
62,83-51 × 52,X,Te,52,1.0,3.0,0.884716576192234,(Bi0.04Sb0.96)2(Te1.00)3
63,83-51 × 52,A,Bi,83,0.12,0.24,0.9130358053610528,(Bi0.12Sb0.88)2(Te1.00)3
63,83-51 × 52,A,Sb,51,0.88,1.76,0.9130358053610528,(Bi0.12Sb0.88)2(Te1.00)3
63,83-51 × 52,X,Te,52,1.0,3.0,0.9130358053610528,(Bi0.12Sb0.88)2(Te1.00)3
64,83-51 × 52,A,Bi,83,0.02,0.04,0.7506979486318122,(Bi0.02Sb0.98)2(Te1.00)3
64,83-51 × 52,A,Sb,51,0.98,1.96,0.7506979486318122,(Bi0.02Sb0.98)2(Te1.00)3
64,83-51 × 52,X,Te,52,1.0,3.0,0.7506979486318122,(Bi0.02Sb0.98)2(Te1.00)3
65,83-51 × 52,A,Bi,83,0.04,0.08,0.884716576192234,(Bi0.04Sb0.96)2(Te1.00)3
65,83-51 × 52,A,Sb,51,0.96,1.92,0.884716576192234,(Bi0.04Sb0.96)2(Te1.00)3
65,83-51 × 52,X,Te,52,1.0,3.0,0.884716576192234,(Bi0.04Sb0.96)2(Te1.00)3
66,83-51 × 52,A,Bi,83,0.62,1.24,0.5110045681690862,(Bi0.62Sb0.38)2(Te1.00)3
66,83-51 × 52,A,Sb,51,0.38,0.76,0.5110045681690862,(Bi0.62Sb0.38)2(Te1.00)3
66,83-51 × 52,X,Te,52,1.0,3.0,0.5110045681690862,(Bi0.62Sb0.38)2(Te1.00)3
67,83-51 × 52,A,Bi,83,0.18,0.36,0.8946954100619335,(Bi0.18Sb0.82)2(Te1.00)3
67,83-51 × 52,A,Sb,51,0.82,1.64,0.8946954100619335,(Bi0.18Sb0.82)2(Te1.00)3
67,83-51 × 52,X,Te,52,1.0,3.0,0.8946954100619335,(Bi0.18Sb0.82)2(Te1.00)3
68,83-51 × 52,A,Bi,83,0.18,0.36,0.8946954100619335,(Bi0.18Sb0.82)2(Te1.00)3
68,83-51 × 52,A,Sb,51,0.82,1.64,0.8946954100619335,(Bi0.18Sb0.82)2(Te1.00)3
68,83-51 × 52,X,Te,52,1.0,3.0,0.8946954100619335,(Bi0.18Sb0.82)2(Te1.00)3
69,51 × 52,A,Sb,51,1.0,2.0,0.5404170989182809,(Sb1.00)2(Te1.00)3
69,51 × 52,X,Te,52,1.0,3.0,0.5404170989182809,(Sb1.00)2(Te1.00)3
70,51-50-49 × 52,A,Sb,51,0.6000000000000001,1.2,0.3432604911640645,(Sb0.60Sn0.30In0.10)2(Te1.00)3
70,51-50-49 × 52,A,Sn,50,0.30000000000000004,0.6,0.3432604911640645,(Sb0.60Sn0.30In0.10)2(Te1.00)3
70,51-50-49 × 52,A,In,49,0.10000000000000002,0.2,0.3432604911640645,(Sb0.60Sn0.30In0.10)2(Te1.00)3
70,51-50-49 × 52,X,Te,52,1.0,3.0,0.3432604911640645,(Sb0.60Sn0.30In0.10)2(Te1.00)3
71,83-51 × 52,A,Bi,83,0.08,0.16,0.9156094611614896,(Bi0.08Sb0.92)2(Te1.00)3
71,83-51 × 52,A,Sb,51,0.92,1.84,0.9156094611614896,(Bi0.08Sb0.92)2(Te1.00)3
71,83-51 × 52,X,Te,52,1.0,3.0,0.9156094611614896,(Bi0.08Sb0.92)2(Te1.00)3
72,83-51 × 52,A,Bi,83,0.02,0.04,0.7506979486318122,(Bi0.02Sb0.98)2(Te1.00)3
72,83-51 × 52,A,Sb,51,0.98,1.96,0.7506979486318122,(Bi0.02Sb0.98)2(Te1.00)3
72,83-51 × 52,X,Te,52,1.0,3.0,0.7506979486318122,(Bi0.02Sb0.98)2(Te1.00)3
73,83-51 × 52,A,Bi,83,0.38,0.76,0.8085698764942821,(Bi0.38Sb0.62)2(Te1.00)3
73,83-51 × 52,A,Sb,51,0.62,1.24,0.8085698764942821,(Bi0.38Sb0.62)2(Te1.00)3
73,83-51 × 52,X,Te,52,1.0,3.0,0.8085698764942821,(Bi0.38Sb0.62)2(Te1.00)3
74,83-51 × 52,A,Bi,83,0.08,0.16,0.9156094611614896,(Bi0.08Sb0.92)2(Te1.00)3
74,83-51 × 52,A,Sb,51,0.92,1.84,0.9156094611614896,(Bi0.08Sb0.92)2(Te1.00)3
74,83-51 × 52,X,Te,52,1.0,3.0,0.9156094611614896,(Bi0.08Sb0.92)2(Te1.00)3
75,51 × 52,A,Sb,51,1.0,2.0,0.5404170989182809,(Sb1.00)2(Te1.00)3
75,51 × 52,X,Te,52,1.0,3.0,0.5404170989182809,(Sb1.00)2(Te1.00)3
76,51 × 52,A,Sb,51,1.0,2.0,0.5404170989182809,(Sb1.00)2(Te1.00)3
76,51 × 52,X,Te,52,1.0,3.0,0.5404170989182809,(Sb1.00)2(Te1.00)3
77,51 × 52,A,Sb,51,1.0,2.0,0.5404170989182809,(Sb1.00)2(Te1.00)3
77,51 × 52,X,Te,52,1.0,3.0,0.5404170989182809,(Sb1.00)2(Te1.00)3
78,51 × 52,A,Sb,51,1.0,2.0,0.5404170989182809,(Sb1.00)2(Te1.00)3
78,51 × 52,X,Te,52,1.0,3.0,0.5404170989182809,(Sb1.00)2(Te1.00)3
79,83-51 × 52,A,Bi,83,0.16,0.32,0.9017857632334383,(Bi0.16Sb0.84)2(Te1.00)3
79,83-51 × 52,A,Sb,51,0.84,1.68,0.9017857632334383,(Bi0.16Sb0.84)2(Te1.00)3
79,83-51 × 52,X,Te,52,1.0,3.0,0.9017857632334383,(Bi0.16Sb0.84)2(Te1.00)3
80,83-51 × 52,A,Bi,83,0.08,0.16,0.9156094611614896,(Bi0.08Sb0.92)2(Te1.00)3
80,83-51 × 52,A,Sb,51,0.92,1.84,0.9156094611614896,(Bi0.08Sb0.92)2(Te1.00)3
80,83-51 × 52,X,Te,52,1.0,3.0,0.9156094611614896,(Bi0.08Sb0.92)2(Te1.00)3
81,83-51 × 52,A,Bi,83,0.08,0.16,0.9156094611614896,(Bi0.08Sb0.92)2(Te1.00)3
81,83-51 × 52,A,Sb,51,0.92,1.84,0.9156094611614896,(Bi0.08Sb0.92)2(Te1.00)3
81,83-51 × 52,X,Te,52,1.0,3.0,0.9156094611614896,(Bi0.08Sb0.92)2(Te1.00)3
82,83-51 × 52,A,Bi,83,0.08,0.16,0.9156094611614896,(Bi0.08Sb0.92)2(Te1.00)3
82,83-51 × 52,A,Sb,51,0.92,1.84,0.9156094611614896,(Bi0.08Sb0.92)2(Te1.00)3
82,83-51 × 52,X,Te,52,1.0,3.0,0.9156094611614896,(Bi0.08Sb0.92)2(Te1.00)3
83,83-51 × 52,A,Bi,83,0.08,0.16,0.9156094611614896,(Bi0.08Sb0.92)2(Te1.00)3
83,83-51 × 52,A,Sb,51,0.92,1.84,0.9156094611614896,(Bi0.08Sb0.92)2(Te1.00)3
83,83-51 × 52,X,Te,52,1.0,3.0,0.9156094611614896,(Bi0.08Sb0.92)2(Te1.00)3
84,83-51 × 52,A,Bi,83,0.08,0.16,0.9156094611614896,(Bi0.08Sb0.92)2(Te1.00)3
84,83-51 × 52,A,Sb,51,0.92,1.84,0.9156094611614896,(Bi0.08Sb0.92)2(Te1.00)3
84,83-51 × 52,X,Te,52,1.0,3.0,0.9156094611614896,(Bi0.08Sb0.92)2(Te1.00)3
85,83-51 × 52,A,Bi,83,0.08,0.16,0.9156094611614896,(Bi0.08Sb0.92)2(Te1.00)3
85,83-51 × 52,A,Sb,51,0.92,1.84,0.9156094611614896,(Bi0.08Sb0.92)2(Te1.00)3
85,83-51 × 52,X,Te,52,1.0,3.0,0.9156094611614896,(Bi0.08Sb0.92)2(Te1.00)3
86,83-51 × 52,A,Bi,83,0.08,0.16,0.9156094611614896,(Bi0.08Sb0.92)2(Te1.00)3
86,83-51 × 52,A,Sb,51,0.92,1.84,0.9156094611614896,(Bi0.08Sb0.92)2(Te1.00)3
86,83-51 × 52,X,Te,52,1.0,3.0,0.9156094611614896,(Bi0.08Sb0.92)2(Te1.00)3
87,83-51 × 52,A,Bi,83,0.08,0.16,0.9156094611614896,(Bi0.08Sb0.92)2(Te1.00)3
87,83-51 × 52,A,Sb,51,0.92,1.84,0.9156094611614896,(Bi0.08Sb0.92)2(Te1.00)3
87,83-51 × 52,X,Te,52,1.0,3.0,0.9156094611614896,(Bi0.08Sb0.92)2(Te1.00)3
88,83-51 × 52,A,Bi,83,0.0,0.0,0.5404170989182809,(Bi0.00Sb1.00)2(Te1.00)3
88,83-51 × 52,A,Sb,51,1.0,2.0,0.5404170989182809,(Bi0.00Sb1.00)2(Te1.00)3
88,83-51 × 52,X,Te,52,1.0,3.0,0.5404170989182809,(Bi0.00Sb1.00)2(Te1.00)3
90,83-51 × 52,A,Bi,83,0.08,0.16,0.9156094611614896,(Bi0.08Sb0.92)2(Te1.00)3
90,83-51 × 52,A,Sb,51,0.92,1.84,0.9156094611614896,(Bi0.08Sb0.92)2(Te1.00)3
90,83-51 × 52,X,Te,52,1.0,3.0,0.9156094611614896,(Bi0.08Sb0.92)2(Te1.00)3
91,83-51 × 52,A,Bi,83,0.08,0.16,0.9156094611614896,(Bi0.08Sb0.92)2(Te1.00)3
91,83-51 × 52,A,Sb,51,0.92,1.84,0.9156094611614896,(Bi0.08Sb0.92)2(Te1.00)3
91,83-51 × 52,X,Te,52,1.0,3.0,0.9156094611614896,(Bi0.08Sb0.92)2(Te1.00)3
92,51-49 × 52,A,Sb,51,0.84,1.68,0.4978110861175468,(Sb0.84In0.16)2(Te1.00)3
92,51-49 × 52,A,In,49,0.16,0.32,0.4978110861175468,(Sb0.84In0.16)2(Te1.00)3
92,51-49 × 52,X,Te,52,1.0,3.0,0.4978110861175468,(Sb0.84In0.16)2(Te1.00)3
93,83-82 × 52,A,Bi,83,0.7,1.4,0.11467730985692012,(Bi0.70Pb0.30)2(Te1.00)3
93,83-82 × 52,A,Pb,82,0.3,0.6,0.11467730985692012,(Bi0.70Pb0.30)2(Te1.00)3
93,83-82 × 52,X,Te,52,1.0,3.0,0.11467730985692012,(Bi0.70Pb0.30)2(Te1.00)3
95,83-51 × 52,A,Bi,83,0.08,0.16,0.9156094611614896,(Bi0.08Sb0.92)2(Te1.00)3
95,83-51 × 52,A,Sb,51,0.92,1.84,0.9156094611614896,(Bi0.08Sb0.92)2(Te1.00)3
95,83-51 × 52,X,Te,52,1.0,3.0,0.9156094611614896,(Bi0.08Sb0.92)2(Te1.00)3
96,83-51 × 52,A,Bi,83,0.08,0.16,0.9156094611614896,(Bi0.08Sb0.92)2(Te1.00)3
96,83-51 × 52,A,Sb,51,0.92,1.84,0.9156094611614896,(Bi0.08Sb0.92)2(Te1.00)3
96,83-51 × 52,X,Te,52,1.0,3.0,0.9156094611614896,(Bi0.08Sb0.92)2(Te1.00)3
97,83-51 × 52,A,Bi,83,0.08,0.16,0.9156094611614896,(Bi0.08Sb0.92)2(Te1.00)3
97,83-51 × 52,A,Sb,51,0.92,1.84,0.9156094611614896,(Bi0.08Sb0.92)2(Te1.00)3
97,83-51 × 52,X,Te,52,1.0,3.0,0.9156094611614896,(Bi0.08Sb0.92)2(Te1.00)3
98,83-82 × 52,A,Bi,83,1.0,2.0,0.193306631144729,(Bi1.00Pb0.00)2(Te1.00)3
98,83-82 × 52,A,Pb,82,0.0,0.0,0.193306631144729,(Bi1.00Pb0.00)2(Te1.00)3
98,83-82 × 52,X,Te,52,1.0,3.0,0.193306631144729,(Bi1.00Pb0.00)2(Te1.00)3
99,83-51 × 52,A,Bi,83,0.08,0.16,0.9156094611614896,(Bi0.08Sb0.92)2(Te1.00)3
99,83-51 × 52,A,Sb,51,0.92,1.84,0.9156094611614896,(Bi0.08Sb0.92)2(Te1.00)3
99,83-51 × 52,X,Te,52,1.0,3.0,0.9156094611614896,(Bi0.08Sb0.92)2(Te1.00)3
100,83-51 × 52,A,Bi,83,0.0,0.0,0.5404170989182809,(Bi0.00Sb1.00)2(Te1.00)3
100,83-51 × 52,A,Sb,51,1.0,2.0,0.5404170989182809,(Bi0.00Sb1.00)2(Te1.00)3
100,83-51 × 52,X,Te,52,1.0,3.0,0.5404170989182809,(Bi0.00Sb1.00)2(Te1.00)3
101,83-51 × 52,A,Bi,83,0.08,0.16,0.9156094611614896,(Bi0.08Sb0.92)2(Te1.00)3
101,83-51 × 52,A,Sb,51,0.92,1.84,0.9156094611614896,(Bi0.08Sb0.92)2(Te1.00)3
101,83-51 × 52,X,Te,52,1.0,3.0,0.9156094611614896,(Bi0.08Sb0.92)2(Te1.00)3
102,83-51 × 52,A,Bi,83,0.1,0.2,0.9155552012497024,(Bi0.10Sb0.90)2(Te1.00)3
102,83-51 × 52,A,Sb,51,0.9,1.8,0.9155552012497024,(Bi0.10Sb0.90)2(Te1.00)3
102,83-51 × 52,X,Te,52,1.0,3.0,0.9155552012497024,(Bi0.10Sb0.90)2(Te1.00)3
103,83-51 × 52,A,Bi,83,0.08,0.16,0.9156094611614896,(Bi0.08Sb0.92)2(Te1.00)3