trial_index,pair,sublattice,element,Z,frac_on_site,stoich_count,zt,formula
85,83-51 × 52,X,Te,52,1.0,3.0,0.5404170989182809,(Bi0.00Sb1.00)2(Te1.00)3
86,83-51-82 × 52,A,Bi,83,0.0,0.0,0.5404170989182809,(Bi0.00Sb1.00Pb0.00)2(Te1.00)3
86,83-51-82 × 52,A,Sb,51,1.0,2.0,0.5404170989182809,(Bi0.00Sb1.00Pb0.00)2(Te1.00)3
86,83-51-82 × 52,A,Pb,82,0.0,0.0,0.5404170989182809,(Bi0.00Sb1.00Pb0.00)2(Te1.00)3
86,83-51-82 × 52,X,Te,52,1.0,3.0,0.5404170989182809,(Bi0.00Sb1.00Pb0.00)2(Te1.00)3
87,83-51 × 52,A,Bi,83,0.8,1.6,0.3098094861728244,(Bi0.80Sb0.20)2(Te1.00)3
87,83-51 × 52,A,Sb,51,0.2,0.4,0.3098094861728244,(Bi0.80Sb0.20)2(Te1.00)3
87,83-51 × 52,X,Te,52,1.0,3.0,0.3098094861728244,(Bi0.80Sb0.20)2(Te1.00)3
88,83-51 × 52,A,Bi,83,0.24,0.48,0.8719348446845854,(Bi0.24Sb0.76)2(Te1.00)3
88,83-51 × 52,A,Sb,51,0.76,1.52,0.8719348446845854,(Bi0.24Sb0.76)2(Te1.00)3
88,83-51 × 52,X,Te,52,1.0,3.0,0.8719348446845854,(Bi0.24Sb0.76)2(Te1.00)3
89,83-51 × 52,A,Bi,83,0.08,0.16,0.9156094611614896,(Bi0.08Sb0.92)2(Te1.00)3
89,83-51 × 52,A,Sb,51,0.92,1.84,0.9156094611614896,(Bi0.08Sb0.92)2(Te1.00)3
89,83-51 × 52,X,Te,52,1.0,3.0,0.9156094611614896,(Bi0.08Sb0.92)2(Te1.00)3
90,83-51 × 52,A,Bi,83,0.34,0.68,0.836095921357562,(Bi0.34Sb0.66)2(Te1.00)3
90,83-51 × 52,A,Sb,51,0.66,1.32,0.836095921357562,(Bi0.34Sb0.66)2(Te1.00)3
90,83-51 × 52,X,Te,52,1.0,3.0,0.836095921357562,(Bi0.34Sb0.66)2(Te1.00)3
91,83-51-82 × 52,A,Bi,83,0.1,0.2,0.16854759019104434,(Bi0.10Sb0.60Pb0.30)2(Te1.00)3
91,83-51-82 × 52,A,Sb,51,0.6,1.2,0.16854759019104434,(Bi0.10Sb0.60Pb0.30)2(Te1.00)3
91,83-51-82 × 52,A,Pb,82,0.3,0.6,0.16854759019104434,(Bi0.10Sb0.60Pb0.30)2(Te1.00)3
91,83-51-82 × 52,X,Te,52,1.0,3.0,0.16854759019104434,(Bi0.10Sb0.60Pb0.30)2(Te1.00)3
92,83-51-82 × 52,A,Bi,83,0.0,0.0,0.4274618001127185,(Bi0.00Sb0.88Pb0.12)2(Te1.00)3
92,83-51-82 × 52,A,Sb,51,0.88,1.76,0.4274618001127185,(Bi0.00Sb0.88Pb0.12)2(Te1.00)3
92,83-51-82 × 52,A,Pb,82,0.12,0.24,0.4274618001127185,(Bi0.00Sb0.88Pb0.12)2(Te1.00)3
92,83-51-82 × 52,X,Te,52,1.0,3.0,0.4274618001127185,(Bi0.00Sb0.88Pb0.12)2(Te1.00)3
93,83-51 × 52,A,Bi,83,0.2,0.4,0.8876216200010592,(Bi0.20Sb0.80)2(Te1.00)3
93,83-51 × 52,A,Sb,51,0.8,1.6,0.8876216200010592,(Bi0.20Sb0.80)2(Te1.00)3
93,83-51 × 52,X,Te,52,1.0,3.0,0.8876216200010592,(Bi0.20Sb0.80)2(Te1.00)3
94,83-51 × 52,A,Bi,83,0.14,0.28,0.9087313254656841,(Bi0.14Sb0.86)2(Te1.00)3
94,83-51 × 52,A,Sb,51,0.86,1.72,0.9087313254656841,(Bi0.14Sb0.86)2(Te1.00)3
94,83-51 × 52,X,Te,52,1.0,3.0,0.9087313254656841,(Bi0.14Sb0.86)2(Te1.00)3
95,83-51 × 52,A,Bi,83,0.1,0.2,0.9155552012497024,(Bi0.10Sb0.90)2(Te1.00)3
95,83-51 × 52,A,Sb,51,0.9,1.8,0.9155552012497024,(Bi0.10Sb0.90)2(Te1.00)3
95,83-51 × 52,X,Te,52,1.0,3.0,0.9155552012497024,(Bi0.10Sb0.90)2(Te1.00)3
96,83-51 × 52,A,Bi,83,0.72,1.44,0.42140875891786944,(Bi0.72Sb0.28)2(Te1.00)3
96,83-51 × 52,A,Sb,51,0.28,0.56,0.42140875891786944,(Bi0.72Sb0.28)2(Te1.00)3
96,83-51 × 52,X,Te,52,1.0,3.0,0.42140875891786944,(Bi0.72Sb0.28)2(Te1.00)3
97,83-51 × 52,A,Bi,83,0.26,0.52,0.8643439081847064,(Bi0.26Sb0.74)2(Te1.00)3
97,83-51 × 52,A,Sb,51,0.74,1.48,0.8643439081847064,(Bi0.26Sb0.74)2(Te1.00)3
97,83-51 × 52,X,Te,52,1.0,3.0,0.8643439081847064,(Bi0.26Sb0.74)2(Te1.00)3
98,83-51 × 52,A,Bi,83,0.0,0.0,0.5404170989182809,(Bi0.00Sb1.00)2(Te1.00)3
98,83-51 × 52,A,Sb,51,1.0,2.0,0.5404170989182809,(Bi0.00Sb1.00)2(Te1.00)3
98,83-51 × 52,X,Te,52,1.0,3.0,0.5404170989182809,(Bi0.00Sb1.00)2(Te1.00)3
99,83-51 × 52,A,Bi,83,0.2,0.4,0.8876216200010592,(Bi0.20Sb0.80)2(Te1.00)3
99,83-51 × 52,A,Sb,51,0.8,1.6,0.8876216200010592,(Bi0.20Sb0.80)2(Te1.00)3
99,83-51 × 52,X,Te,52,1.0,3.0,0.8876216200010592,(Bi0.20Sb0.80)2(Te1.00)3
100,51 × 52,A,Sb,51,1.0,2.0,0.5404170989182809,(Sb1.00)2(Te1.00)3
100,51 × 52,X,Te,52,1.0,3.0,0.5404170989182809,(Sb1.00)2(Te1.00)3
101,83-51 × 52,A,Bi,83,0.0,0.0,0.5404170989182809,(Bi0.00Sb1.00)2(Te1.00)3
101,83-51 × 52,A,Sb,51,1.0,2.0,0.5404170989182809,(Bi0.00Sb1.00)2(Te1.00)3
101,83-51 × 52,X,Te,52,1.0,3.0,0.5404170989182809,(Bi0.00Sb1.00)2(Te1.00)3
102,83-51 × 52,A,Bi,83,0.16,0.32,0.9017857632334383,(Bi0.16Sb0.84)2(Te1.00)3
102,83-51 × 52,A,Sb,51,0.84,1.68,0.9017857632334383,(Bi0.16Sb0.84)2(Te1.00)3
102,83-51 × 52,X,Te,52,1.0,3.0,0.9017857632334383,(Bi0.16Sb0.84)2(Te1.00)3