trial_index,arm_name,sublattice,element,Z,frac_on_site,stoich_count,zt,formula,cat_set,an_set
95,95_0,A (cation),Sb,51,0.92,1.84,0.9156094611614896,(Bi0.08Sb0.92)2(Te1.00)3,83-51,52
95,95_0,X (anion),Te,52,1.0,3.0,0.9156094611614896,(Bi0.08Sb0.92)2(Te1.00)3,83-51,52
96,96_0,A (cation),Bi,83,0.08,0.16,0.9156094611614896,(Bi0.08Sb0.92)2(Te1.00)3,83-51,52
96,96_0,A (cation),Sb,51,0.92,1.84,0.9156094611614896,(Bi0.08Sb0.92)2(Te1.00)3,83-51,52
96,96_0,X (anion),Te,52,1.0,3.0,0.9156094611614896,(Bi0.08Sb0.92)2(Te1.00)3,83-51,52
97,97_0,A (cation),Bi,83,0.08,0.16,0.9156094611614896,(Bi0.08Sb0.92)2(Te1.00)3,83-51,52
97,97_0,A (cation),Sb,51,0.92,1.84,0.9156094611614896,(Bi0.08Sb0.92)2(Te1.00)3,83-51,52
97,97_0,X (anion),Te,52,1.0,3.0,0.9156094611614896,(Bi0.08Sb0.92)2(Te1.00)3,83-51,52
98,98_0,A (cation),Bi,83,0.0,0.0,0.5404170989182809,(Bi0.00Sb1.00)2(Te1.00)3,83-51,52
98,98_0,A (cation),Sb,51,1.0,2.0,0.5404170989182809,(Bi0.00Sb1.00)2(Te1.00)3,83-51,52
98,98_0,X (anion),Te,52,1.0,3.0,0.5404170989182809,(Bi0.00Sb1.00)2(Te1.00)3,83-51,52
99,99_0,A (cation),Bi,83,0.08,0.16,0.9156094611614896,(Bi0.08Sb0.92)2(Te1.00)3,83-51,52
99,99_0,A (cation),Sb,51,0.92,1.84,0.9156094611614896,(Bi0.08Sb0.92)2(Te1.00)3,83-51,52
99,99_0,X (anion),Te,52,1.0,3.0,0.9156094611614896,(Bi0.08Sb0.92)2(Te1.00)3,83-51,52
100,100_0,A (cation),Bi,83,0.1,0.2,0.9155552012497024,(Bi0.10Sb0.90)2(Te1.00)3,83-51,52
100,100_0,A (cation),Sb,51,0.9,1.8,0.9155552012497024,(Bi0.10Sb0.90)2(Te1.00)3,83-51,52
100,100_0,X (anion),Te,52,1.0,3.0,0.9155552012497024,(Bi0.10Sb0.90)2(Te1.00)3,83-51,52
101,101_0,A (cation),Bi,83,0.24,0.48,0.13482144886967137,(Bi0.24Sb0.46Pb0.30)2(Te1.00)3,83-51-82,52
101,101_0,A (cation),Sb,51,0.46,0.92,0.13482144886967137,(Bi0.24Sb0.46Pb0.30)2(Te1.00)3,83-51-82,52
101,101_0,A (cation),Pb,82,0.3,0.6,0.13482144886967137,(Bi0.24Sb0.46Pb0.30)2(Te1.00)3,83-51-82,52
101,101_0,X (anion),Te,52,1.0,3.0,0.13482144886967137,(Bi0.24Sb0.46Pb0.30)2(Te1.00)3,83-51-82,52
102,102_0,A (cation),Bi,83,0.12,0.24,0.9130358053610528,(Bi0.12Sb0.88)2(Te1.00)3,83-51,52
102,102_0,A (cation),Sb,51,0.88,1.76,0.9130358053610528,(Bi0.12Sb0.88)2(Te1.00)3,83-51,52
102,102_0,X (anion),Te,52,1.0,3.0,0.9130358053610528,(Bi0.12Sb0.88)2(Te1.00)3,83-51,52
103,103_0,A (cation),Sb,51,1.0,2.0,0.5404170989182809,(Sb1.00)2(Te1.00)3,51,52
103,103_0,X (anion),Te,52,1.0,3.0,0.5404170989182809,(Sb1.00)2(Te1.00)3,51,52
104,104_0,A (cation),Bi,83,0.1,0.2,0.9155552012497024,(Bi0.10Sb0.90)2(Te1.00)3,83-51,52
104,104_0,A (cation),Sb,51,0.9,1.8,0.9155552012497024,(Bi0.10Sb0.90)2(Te1.00)3,83-51,52
104,104_0,X (anion),Te,52,1.0,3.0,0.9155552012497024,(Bi0.10Sb0.90)2(Te1.00)3,83-51,52
105,105_0,A (cation),Bi,83,0.46,0.92,0.7270361403765329,(Bi0.46Sb0.54)2(Te1.00)3,83-51,52
105,105_0,A (cation),Sb,51,0.54,1.08,0.7270361403765329,(Bi0.46Sb0.54)2(Te1.00)3,83-51,52
105,105_0,X (anion),Te,52,1.0,3.0,0.7270361403765329,(Bi0.46Sb0.54)2(Te1.00)3,83-51,52
106,106_0,A (cation),Sb,51,0.58,1.16,0.27742433831662433,(Sb0.58Sn0.26In0.16)2(Te1.00)3,51-50-49,52
106,106_0,A (cation),Sn,50,0.26,0.52,0.27742433831662433,(Sb0.58Sn0.26In0.16)2(Te1.00)3,51-50-49,52
106,106_0,A (cation),In,49,0.16,0.32,0.27742433831662433,(Sb0.58Sn0.26In0.16)2(Te1.00)3,51-50-49,52
106,106_0,X (anion),Te,52,1.0,3.0,0.27742433831662433,(Sb0.58Sn0.26In0.16)2(Te1.00)3,51-50-49,52
107,107_0,A (cation),Bi,83,0.54,1.08,0.6186860153051538,(Bi0.54Sb0.46)2(Te1.00)3,83-51,52
107,107_0,A (cation),Sb,51,0.46,0.92,0.6186860153051538,(Bi0.54Sb0.46)2(Te1.00)3,83-51,52
107,107_0,X (anion),Te,52,1.0,3.0,0.6186860153051538,(Bi0.54Sb0.46)2(Te1.00)3,83-51,52
108,108_0,A (cation),Sb,51,1.0,2.0,0.5404170989182809,(Sb1.00)2(Te1.00)3,51,52
108,108_0,X (anion),Te,52,1.0,3.0,0.5404170989182809,(Sb1.00)2(Te1.00)3,51,52
109,109_0,A (cation),Sb,51,1.0,2.0,0.5404170989182809,(Sb1.00)2(Te1.00)3,51,52
109,109_0,X (anion),Te,52,1.0,3.0,0.5404170989182809,(Sb1.00)2(Te1.00)3,51,52
110,110_0,A (cation),Sb,51,1.0,2.0,0.5404170989182809,(Sb1.00)2(Te1.00)3,51,52
110,110_0,X (anion),Te,52,1.0,3.0,0.5404170989182809,(Sb1.00)2(Te1.00)3,51,52
111,111_0,A (cation),Bi,83,0.12,0.24,0.9130358053610528,(Bi0.12Sb0.88)2(Te1.00)3,83-51,52
111,111_0,A (cation),Sb,51,0.88,1.76,0.9130358053610528,(Bi0.12Sb0.88)2(Te1.00)3,83-51,52
111,111_0,X (anion),Te,52,1.0,3.0,0.9130358053610528,(Bi0.12Sb0.88)2(Te1.00)3,83-51,52